     512
 i =     1286, time =      643.000, E =     -5898.2910297391
 Cs         0.2804981660       -0.3878993295        0.6764988998
  P         2.3451780857        2.8135904473        2.6282790436
  O         1.0677916726        2.4344756156        1.7939151578
  O         2.9711708143        1.5410905296        3.4195185551
  O         3.4911814187        3.2165424518        1.5425318718
  O         2.1359719553        3.9538967010        3.5262794712
  H         4.1973960245        2.5155242001        1.5715170341
  H         3.2582393122        0.6808897939        2.9814702090
 Cs         0.2998939182       -0.3693488808        5.0068543782
  P         2.9924705209        1.4166643615        7.2155706575
  O         3.2299437663        0.3413301758        6.1032569622
  O         2.6905450146        0.7838346214        8.6797198412
  O         4.2157864767        2.2466305120        7.3732247528
  O         1.5595347399        2.1699418244        6.9286409516
  H         0.8621817418        1.7431209662        7.5631185540
  H         2.0965226265       -0.2626871263        8.5006447507
 Cs         0.2326260957       -0.2664335511       10.9667935213
  P         2.3527089346        2.2587055432       12.3021538276
  O         3.5341849974        1.5945327332       11.3562953738
  O         2.0414550301        1.3921663047       13.4550736503
  O         3.0642085651        3.7130263533       12.8830406556
  O         1.3170859218        2.5783457386       11.2229662603
  H         2.8190913158        4.4020297781       12.2135078947
  H         3.1103378753        1.5275683187       10.4576203074
 Cs         0.1364394710       -0.4135036665       15.1535529230
  P         2.5659898645        2.1017928767       17.2111076087
  O         1.8690229664        0.7520968600       17.2615263955
  O         3.3968241537        2.1564179223       18.6189063625
  O         3.5697374688        2.4159680464       16.1210381034
  O         1.3574457486        3.1499774240       17.4270609589
  H         1.6460422865        4.1574618428       17.1781866002
  H         2.8122614654        2.1661940600       19.3993381223
 Cs         0.5885555619        4.9458660822        0.2167698380
  P         2.5576825974        7.4963591010        3.0422720293
  O         3.3082291894        7.1650781066        1.6046709131
  O         3.3667862973        6.4750546754        4.0324210946
  O         2.8673522796        8.8531373926        3.6293743928
  O         1.1592863824        6.9857679042        2.9896695231
  H        -0.3295819710        7.2598520816        3.1846240066
  H         2.9132045885        5.6047131874        3.8357748335
 Cs        -0.0653614346        5.1030209601        5.3380821683
  P         2.4392378750        7.7151486151        7.4056492557
  O         3.0753227860        6.4208398655        6.6716071140
  O         2.4313029805        7.5841715116        8.9481805344
  O         3.4864916885        8.9106719157        7.0354379294
  O         1.1314083332        7.9426934887        6.6987140334
  H         3.0129191952        9.5818959428        6.4984936914
  H         3.1433279406        6.6431783854        5.6783851390
 Cs         0.7145556011        5.0450437149        9.7669184088
  P         2.5675907405        7.1412619082       12.5873524465
  O         3.1978752939        6.1374913564       11.5688414160
  O         2.5535488859        6.2912236255       14.0036364405
  O         3.2707871604        8.4522956630       12.7358088516
  O         0.9216676699        7.2279230870       12.1909519399
  H         0.4106204395        7.7807100575       12.8648828966
  H         2.6755827144        5.3015385054       13.7392692691
 Cs        -0.0433766978        4.1026330675       14.6158259219
  P         2.5924975964        7.3067619946       17.2910215840
  O         3.3868580212        6.0697411978       16.5661529155
  O         3.2115419802        7.2887949555       18.6484820700
  O         3.2561977824        8.6622799936       16.4275721278
  O         1.1529036522        7.3078674094       17.0952213275
  H         3.0816535651        9.4267355065       16.9693056538
  H         3.3189586769        6.1282812184       15.6255206653
 Cs         0.2325471151        9.7861300490       -0.4519719785
  P         2.3421235118       12.6622022617        2.4321544193
  O         2.3408222175       11.8938203734        1.0447165544
  O         3.2115281573       11.7344409961        3.5104597319
  O         3.2151746280       13.9202629548        2.3194127580
  O         1.0446834221       12.9008164443        3.2028121390
  H         2.6658274543       12.6183228435       -0.1840153078
  H         2.6340453123       11.4357361626        4.2319717597
 Cs         0.0317318005       10.0079611468        4.9212631840
  P         2.6333119280       12.3769022588        7.4161932878
  O         2.8308368828       11.2762138336        6.3350999971
  O         1.8009205173       11.5859947622        8.6300116864
  O         3.9382892665       12.8412032799        8.0507201335
  O         1.6497243345       13.5716529208        7.0217375322
  H         1.7106283603       14.6323440456        7.3492284169
  H         1.9236708500       10.6593817581        8.5733306730
 Cs        -0.4133945132        9.0947336866        9.7173235886
  P         2.0706457080       11.9625477110       12.7473473681
  O         1.6643408866       11.1367050866       11.3673554602
  O         2.7816047753       10.8400126959       13.7770326006
  O         3.1259660504       13.0455046330       12.4211999842
  O         0.7380358171       12.3878735660       13.2814701806
  H         1.9140332208       11.5244189350       10.4978688700
  H         2.9934039729        9.9705064447       13.3123504580
 Cs        -0.1192909114        9.6813724839       15.6120845893
  P         2.6168689020       12.3976978252       17.3450057548
  O         3.9280004122       11.4445628786       17.2161072568
  O         2.6798152283       13.1058898692       18.7712233525
  O         2.9422678874       13.5205283560       16.3033214444
  O         1.3461015914       11.5827092631       17.1862426111
  H         2.7665182350       14.6030372672       16.4644208606
  H         4.7710413427       11.7621921288       17.7882314583
 Cs         0.4611631013       15.0330986626        0.3693156499
  P         3.0375645625       17.7995754708        2.3977979180
  O         2.5469638241       17.8389443702        0.8266182330
  O         3.8956423305       16.4223323164        2.4350472835
  O         4.1442345590       18.7865629330        2.6577889216
  O         1.7718886576       17.8997613323        3.1973089352
  H         3.2211349378       17.4515698675        0.1760260237
  H         3.4037744195       15.4663262646        2.5349478323
 Cs         0.3703671141       15.6599002912        4.8025975590
  P         2.2264196579       17.4734866029        7.7346371553
  O         1.6283361222       16.1243756464        7.4101475894
  O         3.5055330604       17.4334791302        8.7681054108
  O         2.9033667183       17.7788559569        6.3538295776
  O         1.2759007809       18.6288864047        8.2758180592
  H         3.1634502519       18.7649959596        6.2465514136
  H         4.3559537629       16.9053139333        8.3500916131
 Cs        -0.0897237937       14.4158385155       10.1302430086
  P         2.2224420117       16.6885023060       12.5427706461
  O         2.2263851073       16.1431603555       10.9964986317
  O         3.0678540622       15.6851203775       13.3012263953
  O         2.8542742948       18.1108565622       12.4252222135
  O         0.8547569405       16.7638262370       13.2133149884
  H         2.6910686524       16.7056904542       10.3446692098
  H         2.9508832159       14.7213890501       13.1978320943
 Cs        -0.1793525986       14.5557134007       15.0059127416
  P         2.6761677047       16.9796158368       17.5044225398
  O         2.7408298734       15.9249860518       16.3815343127
  O         4.0743601650       16.7558403437       18.4066877590
  O         3.0016569309       18.3790131767       16.7146048532
  O         1.4811947731       17.0214639048       18.3590672048
  H         2.5804605593       19.3376536881       17.0099215722
  H         4.8513501521       17.1066326413       17.7407205566
 Cs         5.1610662027        0.0014999887       -0.9048672989
  P         7.0454403233        2.2854948047        1.9820662360
  O         7.9225631292        1.4060933771        1.0754960457
  O         5.7107752289        1.7863713944        2.4451385052
  O         7.8463208787        2.3518651921        3.4483401003
  O         6.7144181896        3.7774501295        1.5028744942
  H         8.8108002129        2.0955018526        3.2382129769
  H         7.2685199580        4.5727317693        1.4798331247
 Cs         5.8795140843       -0.3731965684        4.7907418876
  P         7.7776691010        2.2651034768        7.4473980120
  O         7.8138109404        1.7471479200        6.0468534568
  O         7.0914083629        1.2175689630        8.4609211782
  O         9.2230416729        2.4531557158        7.8476624955
  O         6.9229393566        3.6003574416        7.6481397296
  H         7.3284481868        4.5555901844        7.6750079139
  H         6.9597636306        0.3471857473        8.0830786431
 Cs         5.0683866269       -0.4311036917       10.4675121679
  P         7.5516073264        2.2628019968       12.1637348900
  O         8.5284845254        2.3639984623       10.8672280151
  O         7.6038617364        0.8566851834       12.6351554761
  O         8.1641276435        3.2361053332       13.2713081064
  O         6.1926138449        2.8100286088       11.6710022467
  H         8.1626103790        4.1561983298       12.9783464019
  H         7.9757978695        2.1935360057       10.0103514892
 Cs         4.8112118291       -0.2596347481       14.7146290488
  P         7.5550282922        2.3983654156       17.3247480322
  O         8.0354539797        1.2078330582       16.4718546731
  O         8.6105990907        2.5339464642       18.6434020700
  O         7.9622191780        3.6924196961       16.5620591997
  O         6.1849754637        2.2337370692       17.8783292580
  H         7.5135510003        4.6570965881       16.9083275119
  H         8.2505254088        2.0986939664       19.4387710707
 Cs         5.2178339514        5.2103392658       -0.3783444228
  P         7.1179020424        7.3492336576        2.3015895547
  O         8.1059906803        6.3011543399        1.5160433102
  O         6.6722461996        6.3635296477        3.5785147571
  O         7.8814804728        8.6073856863        2.6760764105
  O         5.7421671888        7.5087921710        1.6315219908
  H         4.2983837351        7.3644545426        1.8066762113
  H         5.7281528502        6.5941734823        3.7971476724
 Cs         5.4159487743        3.9654048497        5.1247587963
  P         7.5045228818        7.2242654581        7.5054091935
  O         8.0319763878        5.8558067034        7.5007963413
  O         7.0128021223        7.7276147808        8.8204275364
  O         8.6784919348        8.2699859482        6.7767497668
  O         6.1532622852        7.3707098304        6.5733799449
  H         8.2904944840        9.1306327839        7.2539039383
  H         5.2758904873        7.3829459957        6.9812058074
 Cs         5.0200642731        4.4880425148        9.9460457365
  P         7.6776944397        7.2623417340       12.3233496243
  O         7.8654249801        6.5433190804       10.7833266978
  O         7.8529770411        6.0860505592       13.3114745423
  O         9.0251310914        8.2653523311       12.2446691799
  O         6.5949347470        8.2645909599       12.4849381470
  H        10.0376269797        7.8458000536       12.1474491357
  H         7.6619771299        7.1828531174        9.9976967281
 Cs         5.4518795847        4.5610686286       14.6813810843
  P         7.8366073398        7.1691233453       17.5509535495
  O         6.9644979801        5.8917924969       17.2752819795
  O         8.1922211253        7.2311048923       19.0736192502
  O         9.1092120974        7.3950774103       16.7836363171
  O         6.8786823770        8.3660332467       17.1745996572
  H         7.4749065349        9.0963614098       17.4474150209
  H         8.0510974112        6.6610409545       20.3511014418
 Cs         4.3117441525        9.6589499244        0.2761992831
  P         7.2483393021       12.2701663644        2.5327535185
  O         6.1682297590       11.6011961056        1.6958008122
  O         7.7902941590       11.1917200410        3.6000216774
  O         8.5116436677       12.5713386773        1.5582172433
  O         6.8768350067       13.4739044866        3.4285237818
  H         9.2791610715       12.6305541066        2.1741977445
  H         7.7338868361       10.2332364638        3.3012440086
 Cs         5.2675578813        9.9622449180        4.5510262481
  P         7.3005796366       12.1429234287        7.4537143329
  O         8.1152886290       10.9388826478        7.0910643628
  O         6.8581119199       12.2996054157        8.9675692539
  O         8.0900806309       13.4484775873        6.8994647056
  O         5.9826317933       12.1273356306        6.6118635875
  H         8.9824824482       13.0383718329        6.6939894417
  H         5.2549110236       12.6029500574        7.1064170651
 Cs         4.8286181713       10.2669741513       10.4030157173
  P         7.6414103702       12.1471163818       12.2093445201
  O         8.4459103865       11.9183303100       10.8353564504
  O         8.4400228006       10.9243239720       13.1834580755
  O         8.1791669581       13.4725225080       12.6400378913
  O         6.2018532445       11.7747522536       12.1309492922
  H         7.9496895410       11.9829082472        9.9785731927
  H         8.2459723400       10.0220738047       12.8387556359
 Cs         5.5626090596        9.9919006120       14.8280125639
  P         7.2687463227       12.4068393968       17.3666558782
  O         8.6611289770       11.4317694526       17.3590102716
  O         6.2707985115       11.8260908981       18.4092084264
  O         8.1011926525       13.8159985833       17.9492647608
  O         6.8000668673       12.6009126332       15.9556442105
  H         7.5745516222       14.6308848577       18.0591785793
  H         9.4881381671       11.9182281898       17.1698409340
 Cs         5.6290713844       14.5319818931        0.0923443320
  P         7.6967868325       16.7665391590        2.5086395596
  O         8.4113480756       15.7164932307        1.5279248378
  O         6.8751784285       15.9363285687        3.5831648015
  O         8.7284080211       17.6588463757        3.0621614840
  O         6.6535447179       17.6979409034        1.6170697073
  H         5.7466275148       17.5513451426        1.9750622795
  H         6.9129255445       14.9341082951        3.3001048508
 Cs         4.3135598240       14.5320770359        5.0412345279
  P         6.8524915243       17.0654261306        7.5322209623
  O         7.3918380329       17.1185014417        6.0204332839
  O         7.7531584093       16.0372386650        8.3581502337
  O         6.9805692431       18.4168823016        8.1835058337
  O         5.3763782968       16.5112913278        7.5378861059
  H         7.0685884014       16.4065474290        5.4294621621
  H         8.0052881955       15.0290614262        7.9544250676
 Cs         5.1277474690       14.7669264714       10.5308663491
  P         7.5260866176       17.1048699358       12.5882910191
  O         7.9798201434       16.8845859531       11.1471776821
  O         7.9946558961       15.8815219540       13.5121501025
  O         8.2419699011       18.2993415666       13.3926983504
  O         6.0056411654       17.1912630024       12.8378923081
  H         7.7254383205       19.1944981609       13.3352646310
  H         8.1363478508       14.9455291733       13.1401425390
 Cs         5.4764282852       14.9579847800       14.7432766680
  P         7.4956030219       17.3909123466       17.3891734133
  O         8.2102848512       16.6698571882       16.1487060219
  O         7.6800218463       16.4979608793       18.6354862819
  O         8.2766270821       18.8054864855       17.7817625583
  O         6.0490145033       17.7124258395       17.0942190461
  H         8.1499763844       19.6720629949       17.0962796936
  H         8.0145832026       16.9283461223       15.1701492089
 Cs         9.6598651949       -0.9503105726        0.2904407199
  P        12.2269202893        2.1270189470        2.4803895823
  O        12.5934912632        1.1791791531        1.2422359701
  O        12.9649827199        1.3995901556        3.6077932894
  O        12.9508280378        3.3879411448        1.9028309688
  O        10.7601750144        2.3450225820        2.6928634556
  H        12.8100372413        4.4259599117        1.9815705402
  H        12.1795308615        1.5305055425        0.4188433171
 Cs        10.0751139494        0.0657899541        4.8055388270
  P        12.3766145553        2.2428610005        7.6967589502
  O        13.5918186872        1.4237373445        7.4243273277
  O        11.4330003293        1.5660512671        8.8586432335
  O        12.6377236072        3.6434460692        8.0420636668
  O        11.2977067964        2.3098697471        6.4551115104
  H        10.3939746779        2.4101958875        6.8809003959
  H        10.4795213786        1.8602292945        8.8614037585
 Cs         9.6524807235       -0.8408270252       10.2049701871
  P        12.1458914562        2.4655775957       12.4262881171
  O        12.1860799707        1.2798148559       11.2878973058
  O        13.3429053500        2.0287710199       13.4916468021
  O        12.4057272137        3.6754684709       11.6764479061
  O        10.8384250514        2.2281593102       13.1384099668
  H        12.0541110555        1.5669460233       10.2942183794
  H        14.2246032578        2.1380781813       13.1426560974
 Cs        10.3809936276        0.0684739716       14.9860642999
  P        12.8070390401        2.6378040928       17.4265576042
  O        13.6909194348        1.6080300109       16.3965696677
  O        12.1072737959        1.6973784801       18.4531749022
  O        13.8207194215        3.4931476939       18.2171818711
  O        11.8654429465        3.3030805291       16.4813630425
  H        13.3213224609        1.7554718591       15.4192761285
  H        12.1514267838        0.5739978558       18.2876334663
 Cs        10.5680613865        4.4534646339       -0.1721551161
  P        12.2620778993        7.3700995602        2.2350425472
  O        13.2563630833        6.1787089903        1.5893237742
  O        12.3703967735        6.9707070064        3.7505875372
  O        13.0587945621        8.7775423392        1.7933345376
  O        10.8507149357        7.2389463186        1.7089202003
  H        12.4867094690        9.5620963324        1.5867821536
  H        13.3291280675        6.2806528648        0.6134517120
 Cs         9.6271196337        5.3808885105        4.3887177212
  P        12.5039588449        7.3551506034        7.3203246886
  O        11.3626076024        7.1370264435        6.0882636521
  O        13.4169180378        6.0311620018        7.1862199712
  O        13.4413410321        8.4746467752        6.9480291334
  O        11.6650770719        7.4334716211        8.6193019121
  H        11.8883168248        7.2304813853        5.2261206009
  H        12.8862815485        5.2236820890        7.5022967103
 Cs        10.3463718386        4.8009427754        9.7966110060
  P        12.6949135340        7.5248160868       12.0847806534
  O        13.2306476203        7.6856047716       10.5425833944
  O        13.6468339937        6.5032050832       12.8551812144
  O        12.8298925691        8.8817905545       12.8722892130
  O        11.2281879497        7.1388660705       12.1035101587
  H        12.5608349696        9.7429944546       12.2580373653
  H        12.5062075330        7.3824404942        9.8815712658
 Cs        10.2380979884        5.0336357285       14.5493945475
  P        12.5480757691        7.5324260831       17.4968475508
  O        12.3130880270        6.9357512224       16.1302777761
  O        13.0441180145        6.3426160600       18.5962004998
  O        13.4337018475        8.8018826475       17.5596666003
  O        11.1933573170        8.0967116195       18.0922376400
  H        10.3862477663        7.7745147297       17.5909940065
  H        13.1210881540        5.4209067461       18.2438648137
 Cs         9.4640097266       10.0918629652        0.1927748733
  P        12.0785756109       12.4556152346        2.4204929489
  O        12.3842383748       11.4822646870        1.1684022496
  O        13.2054797636       11.9208753328        3.3908302742
  O        12.5749604793       13.8847356481        1.8997113376
  O        10.6758801399       12.5465883294        2.9085934646
  H        12.0833048673       14.7396082924        2.1282868274
  H        12.2170686643       11.8640521201        0.2491674431
 Cs        10.5682922558       10.1422372703        4.8620260166
  P        11.6428978727       12.8293020118        7.3457478006
  O        10.5825426767       12.7694807225        6.3497015867
  O        12.5430914614       11.4104003999        7.2620913245
  O        12.9161991350       13.7802277873        6.9360379869
  O        11.2690665044       13.2026552608        8.7758424274
  H        12.7603933541       14.7998269620        6.5911330533
  H        13.4437977587       11.5375638771        6.9412267722
 Cs        10.0709435978        9.9881695904        9.4640532827
  P        12.1183367362       11.9975918334       12.7540491990
  O        12.3294258171       10.9339788157       11.6829809009
  O        13.4336821741       11.7976224952       13.7556697857
  O        12.0209607268       13.4481238013       12.4053180654
  O        11.0538162944       11.5098188791       13.8535144032
  H        10.1038159287       11.4066314216       13.4776577008
  H        14.2912355208       11.8577345131       13.3176997665
 Cs        10.3744326423        8.8846146349       14.9300191487
  P        12.4614144932       12.6576780043       17.5491115191
  O        11.3111628736       12.3224046485       16.3849823082
  O        13.7267817311       11.6456132809       17.4821607189
  O        12.9517523344       14.0911438839       17.1711780859
  O        11.7684127960       12.2942247758       18.9173594636
  H        11.6339649828       11.9376855238       15.5212824625
  H        13.3469967576       10.6575104085       17.7525891093
 Cs        10.4391063954       15.4003058858       -0.3159870159
  P        13.0003612246       17.2549217628        2.5266319934
  O        11.7803790861       16.3371386606        2.1642420869
  O        13.7470279593       16.7874342919        3.8538690793
  O        14.0158263788       17.4069849059        1.4232391700
  O        12.2019968499       18.6327011170        2.7873793338
  H        12.8430759222       19.3907825654        2.7404838251
  H        13.1213154953       16.6997801422        4.6689458107
 Cs         9.9409355960       15.1117267431        4.2848609746
  P        12.4066991089       17.1988444704        7.1538692869
  O        12.4202429368       16.1121003600        6.0902198194
  O        13.8063595635       17.0513983964        8.1067879510
  O        12.6751160364       18.5673057303        6.2739759134
  O        11.2081587229       17.3463194413        8.0450754943
  H        12.8970910805       19.3106781530        6.8381272795
  H        14.5801998382       17.0023376082        7.4932702825
 Cs        10.2293023001       14.9210481522       10.4231122836
  P        12.6978231542       17.4433090795       12.3620390193
  O        13.1418255175       16.5974202542       11.0038115616
  O        13.3163121322       16.6177952518       13.4904426161
  O        13.4446541122       18.8791967101       12.3506669753
  O        11.2233087463       17.5985742599       12.2719825938
  H        12.8500301461       19.5447408049       12.0252297628
  H        12.9478668312       17.0670068744       10.1863089475
 Cs        10.8204375760       15.1164816959       14.6135477120
  P        12.7150729315       18.0061637594       17.3730934454
  O        11.6333025995       17.5343344649       16.4092646000
  O        13.5089280648       16.7701126722       17.9839608222
  O        13.8283155059       18.8350986955       16.5804292855
  O        12.2883683856       18.9376693851       18.5412600151
  H        13.7275222098       19.8974912472       16.6597371503
  H        13.3132556865       15.8826195532       17.6031151624
 Cs        14.9544139401        0.1055053991        0.0566277124
  P        17.4233918583        2.0846055607        2.6080039207
  O        16.2254034834        1.7572055902        1.7928524545
  O        18.4052398976        0.7508566533        3.0044384605
  O        18.4786440721        3.0299706520        1.9531232411
  O        17.1066334888        2.6256302034        4.0726499595
  H        19.4661433042        2.8048362637        2.0745575907
  H        17.8477409057       -0.2276846101        3.0254931340
 Cs        15.3021515234        0.2032667563        5.4911386461
  P        17.1914455196        2.8542015207        7.2943615671
  O        17.7667208776        1.8119233580        6.2682876928
  O        16.5504921480        2.2212201004        8.5603550278
  O        18.5526448756        3.5653088595        7.8423964455
  O        16.3380684773        3.9332285238        6.7069897868
  H        16.8808487570        5.3996121285        6.1130924396
  H        17.6515436449        2.1590287805        5.0861624109
 Cs        15.1074244214       -0.3319457624        9.9287090123
  P        17.3738600976        2.1216904686       11.9964946627
  O        17.8574430754        1.9360786503       10.5333016066
  O        18.0393825841        1.1488863183       12.9245305539
  O        17.7841437720        3.7026419030       12.3538404991
  O        15.8305200680        2.0677025703       12.0514465924
  H        17.2936045373        4.4904584247       11.9283114452
  H        17.2382938745        2.0004895966        9.6077654342
 Cs        15.8961992360       -0.4921669401       14.4057897940
  P        18.0382449652        2.3981638344       17.5302900237
  O        18.4162206458        2.4029285605       16.0510427142
  O        18.6197033931        1.0016324307       18.1346371877
  O        18.4200547362        3.4945629430       18.4510507140
  O        16.4246960499        2.0207555865       17.8365313792
  H        15.6516012465        2.6105754721       17.6921538747
  H        18.1366545926        0.2834023513       17.7073504274
 Cs        16.0658430209        4.4998988955        0.3486093049
  P        17.6483462753        7.5633620351        1.9668167488
  O        18.5220668176        6.8417847976        0.7528573683
  O        18.5368400576        7.3039051394        3.3183956672
  O        17.7853540715        9.0201396100        1.5250218008
  O        16.2992987081        6.9272859882        2.2374382496
  H        18.0923289193       10.2445562227        2.3509442901
  H        17.9015101037        6.8562172964        0.0155358313
 Cs        14.2912525780        4.3472994855        4.8209077772
  P        17.2761796392        7.1591353434        7.2631154694
  O        16.7638469016        6.4350944858        5.9186434801
  O        18.3692002802        6.3493698064        7.9143422789
  O        17.6482127611        8.5831419963        6.8457606467
  O        16.0623057521        7.1962639408        8.3597214774
  H        15.1786388357        7.2866863833        7.9216996373
  H        18.3960128767        4.5949534810        7.8607006260
 Cs        14.9349872707        4.5400940958       10.0027011538
  P        17.0923741500        7.2106777437       12.7779836345
  O        16.9056344407        6.1427715330       11.7699099397
  O        17.6950874521        6.5206283907       14.0487094751
  O        17.9816412646        8.5930551137       12.3787621792
  O        15.6831034880        7.9555733705       13.2396498972
  H        17.4972047212        9.3500063701       11.9145891254
  H        14.9245758635        7.2332292182       13.1143582516
 Cs        14.5968144712        4.7363421742       14.8898956762
  P        17.1141964424        7.1512281026       17.4104431451
  O        16.1434137296        6.6548655068       16.1767903285
  O        18.2856411976        5.9839092020       17.3614752153
  O        17.7627785575        8.5115725528       17.2465756492
  O        16.3639588709        7.0098922396       18.6958372272
  H        16.7559101689        6.5427688420       15.3358776293
  H        18.0984294778        4.9613006706       17.6390716304
 Cs        15.3282932855        9.8170012847       -0.1753498506
  P        17.6996891336       12.4038551991        2.3369052661
  O        18.5912149057       12.2102149002        1.0585942121
  O        17.9588026985       11.0284815564        3.1483529856
  O        18.5616768278       13.4164525173        3.1799650797
  O        16.2456018497       12.8054132251        2.1326439446
  H        19.6016359858       13.1271251123        3.1813109080
  H        18.1009182323       12.1603012498        0.1382843242
 Cs        15.3973397000        9.1977468386        4.2710894859
  P        17.0065477235       12.0625084646        7.0804755534
  O        16.0145122144       11.3865363255        6.1640911393
  O        17.6433357078       10.8874966660        7.9346427651